ITEM: TIMESTEP
0
ITEM: NUMBER OF ATOMS
120
ITEM: BOX BOUNDS pp pp pp
0.0000000000000000e+00 3.3000000000000000e+01
0.0000000000000000e+00 3.3000000000000000e+01
0.0000000000000000e+00 3.3000000000000000e+01
ITEM: ATOMS id mol type x y z vx vy vz
94 3 2 1.55067 0.197978 0.556866 0 0 0
92 3 4 2.21121 32.5491 0.0615387 0 0 0
93 3 1 1.91071 32.8275 0.409153 0 0 0
95 3 2 0.641468 0.251137 1.37028 0 0 0
54 2 3 32.4865 0.031525 1.1301 0 0 0
96 3 1 0.391727 0.636033 1.64987 0 0 0
97 3 1 32.9833 0.857625 1.91957 0 0 0
98 3 4 32.537 0.856374 2.21886 0 0 0
52 2 4 32.7845 32.6845 2.07534 0 0 0
53 2 4 32.5561 32.7764 1.59777 0 0 0
50 2 3 0.219276 0.144181 2.91347 0 0 0
99 3 2 32.1884 0.657392 2.57598 0 0 0
100 3 2 32.0356 0.360921 2.99722 0 0 0
51 2 1 0.0506973 32.8155 2.52333 0 0 0
49 2 3 0.192039 0.570385 3.23951 0 0 0
101 3 4 32.1024 0.104239 3.46447 0 0 0
47 2 2 32.5381 1.18125 3.78908 0 0 0
48 2 1 32.9451 0.956792 3.51952 0 0 0
102 3 3 32.3294 0.00950872 3.94217 0 0 0
103 3 4 32.596 0.137361 4.39082 0 0 0
45 2 3 31.7407 0.98635 4.44394 0 0 0
46 2 1 32.0915 1.18313 4.08772 0 0 0
43 2 3 31.6488 0.432157 5.33118 0 0 0
44 2 2 31.5847 0.69032 4.86434 0 0 0
104 3 2 32.7667 0.463863 4.78187 0 0 0
105 3 3 32.7426 0.889618 5.10872 0 0 0
42 2 4 31.8742 0.334569 5.80903 0 0 0
107 3 1 32.093 1.50483 5.65858 0 0 0
108 3 2 31.6459 1.50985 5.95658 0 0 0
106 3 2 32.4985 1.27751 5.38917 0 0 0
41 2 3 32.1412 0.459282 6.2583 0 0 0
111 3 2 30.5358 0.972303 6.66801 0 0 0
110 3 4 30.7697 1.36508 6.38575 0 0 0
109 3 2 31.1831 1.6401 6.18034 0 0 0
112 3 4 30.5049 0.597939 7.05218 0 0 0
113 3 2 30.6236 0.371213 7.52461 0 0 0
114 3 1 30.7815 0.36524 8.03813 0 0 0
115 3 3 30.8535 0.569274 8.52991 0 0 0
116 3 4 30.747 0.892772 8.94549 0 0 0
120 3 2 29.0577 1.03129 9.8713 0 0 0
119 3 3 29.475 1.30139 9.66734 0 0 0
117 3 4 30.4372 1.19983 9.25921 0 0 0
118 3 1 29.9766 1.36075 9.48413 0 0 0
80 2 2 26.9886 30.8519 24.9594 0 0 0
78 2 1 26.7523 31.3371 25.8603 0 0 0
79 2 3 26.8933 31.1952 25.3616 0 0 0
77 2 4 26.689 31.2668 26.3892 0 0 0
76 2 4 26.7973 31.0542 26.8706 0 0 0
74 2 1 27.5676 30.7048 27.493 0 0 0
75 2 3 27.106 30.8233 27.2448 0 0 0
73 2 2 28.0767 30.787 27.6439 0 0 0
72 2 4 28.5097 31.0818 27.7635 0 0 0
70 2 4 28.8338 31.9791 28.2023 0 0 0
71 2 2 28.772 31.5203 27.9296 0 0 0
68 2 2 29.1439 32.4823 28.8213 0 0 0
69 2 2 28.7415 32.3271 28.6012 0 0 0
1 1 3 29.0264 31.3558 29.218 0 0 0
2 1 3 29.5592 31.4244 29.2258 0 0 0
3 1 1 30.0155 31.7064 29.2581 0 0 0
4 1 3 30.3254 32.1199 29.4054 0 0 0
67 2 2 29.1561 32.5473 29.3545 0 0 0
66 2 4 29.2449 32.3991 29.8633 0 0 0
5 1 1 30.4746 32.5333 29.7144 0 0 0
64 2 4 29.8758 31.8396 30.4891 0 0 0
65 2 2 29.48 32.1193 30.2571 0 0 0
63 2 3 30.3853 31.6916 30.5739 0 0 0
61 2 4 31.3764 32.0364 30.6134 0 0 0
62 2 1 30.9185 31.757 30.5822 0 0 0
6 1 2 30.5102 32.8149 30.1706 0 0 0
26 1 4 5.32791 0.276541 31.2292 0 0 0
27 1 4 5.77247 0.554186 31.3475 0 0 0
29 1 2 6.7422 0.729766 31.3775 0 0 0
35 1 3 9.31193 0.358757 31.1914 0 0 0
36 1 4 9.6183 0.769385 31.0296 0 0 0
37 1 4 9.88768 1.23072 31.0868 0 0 0
38 1 1 10.1594 1.60809 31.356 0 0 0
25 1 2 4.94348 32.9106 31.3124 0 0 0
7 1 4 30.522 32.8831 30.7034 0 0 0
8 1 1 30.6091 32.7375 31.2132 0 0 0
59 2 4 31.8399 32.8632 31.0653 0 0 0
60 2 2 31.6886 32.4489 30.7586 0 0 0
88 3 2 3.46259 0.294087 31.793 0 0 0
86 3 4 4.38548 0.649371 32.1463 0 0 0
87 3 3 3.90782 0.569618 31.9136 0 0 0
28 1 2 6.24994 0.63708 31.5795 0 0 0
30 1 4 7.12027 0.696017 31.7578 0 0 0
31 1 2 7.56039 0.497379 31.9934 0 0 0
32 1 4 8.03707 0.249923 32.0094 0 0 0
33 1 2 8.51082 0.0882106 31.8141 0 0 0
34 1 1 8.94328 0.114254 31.4964 0 0 0
57 2 3 31.8879 0.218847 32.0523 0 0 0
58 2 1 31.8765 0.147424 31.5199 0 0 0
39 1 3 10.4719 1.79866 31.7494 0 0 0
40 1 2 10.8481 1.77063 32.132 0 0 0
10 1 1 31.2357 32.1779 31.8433 0 0 0
11 1 4 31.7442 32.0274 31.9299 0 0 0
12 1 2 32.2778 32.0897 31.9385 0 0 0
14 1 4 0.051754 32.7779 32.1119 0 0 0
90 3 1 2.75616 32.6125 32.1661 0 0 0
89 3 2 3.07716 32.9284 31.8731 0 0 0
23 1 1 4.3473 32.4541 32.0466 0 0 0
24 1 3 4.6233 32.5963 31.6081 0 0 0
82 3 1 5.94583 32.5289 31.9465 0 0 0
81 3 3 6.21477 32.441 31.4897 0 0 0
9 1 3 30.842 32.4586 31.609 0 0 0
13 1 1 32.7373 32.3664 31.9687 0 0 0
16 1 4 1.5972 0.31162 32.3568 0 0 0
17 1 1 2.04311 0.585016 32.4797 0 0 0
18 1 2 2.52096 0.661618 32.7131 0 0 0
19 1 4 2.99099 0.511358 32.9257 0 0 0
20 1 3 3.41641 0.19036 32.994 0 0 0
84 3 3 5.28205 0.182728 32.431 0 0 0
85 3 2 4.8559 0.502074 32.3601 0 0 0
56 2 4 31.9734 0.0757751 32.5631 0 0 0
15 1 3 1.21084 32.9463 32.4339 0 0 0
91 3 3 2.47977 32.4674 32.6034 0 0 0
21 1 3 3.77739 32.8196 32.8493 0 0 0
22 1 2 4.07856 32.539 32.504 0 0 0
83 3 1 5.64397 32.8117 32.2895 0 0 0
55 2 1 32.204 32.798 32.961 0 0 0
ITEM: TIMESTEP
10000
ITEM: NUMBER OF ATOMS
120
ITEM: BOX BOUNDS pp pp pp
0.0000000000000000e+00 3.3000000000000000e+01
0.0000000000000000e+00 3.3000000000000000e+01
0.0000000000000000e+00 3.3000000000000000e+01
ITEM: ATOMS id mol type x y z vx vy vz
50 2 3 32.8991 0.0834641 0.81211 -0.0040811 0.221485 0.126049
53 2 4 0.557698 0.285499 0.458603 0.289085 -0.113869 -0.323211
15 1 3 0.714669 0.369837 0.329112 -0.321597 0.338691 -0.145521
55 2 1 0.966282 0.405513 0.742198 -0.380554 -0.326182 0.0306975
18 1 2 3.23457 0.763225 0.125742 -0.34602 -0.102949 0.365876
34 1 1 8.94691 32.922 32.5367 0.728613 -0.0953001 0.209294
11 1 4 31.3286 32.9066 0.384931 0.0245265 -0.249001 -0.0620117
10 1 1 31.4991 0.797248 0.0602202 0.23165 0.27989 -0.0391311
52 2 4 32.7487 0.137535 0.978344 0.0976066 0.0944644 0.289947
51 2 1 32.5166 0.872487 0.403569 0.63849 -0.306265 -0.218465
93 3 1 2.75587 32.131 32.4035 0.140139 -0.614669 -0.32386
13 1 1 32.6254 32.7725 0.399804 -0.616663 -0.173746 -0.284329
20 1 3 2.80359 32.9645 32.5477 0.18381 -0.129681 0.249667
12 1 2 31.952 32.3221 32.9274 -0.118727 -0.375631 -0.425205
16 1 4 1.59772 0.722946 0.525988 0.448255 -0.356146 0.40221
41 2 3 31.3975 0.0859468 0.516126 -0.170137 0.51909 0.631389
43 2 3 32.8581 1.21428 0.752669 0.30946 0.548943 0.331444
49 2 3 32.1474 0.68283 0.642366 0.0256818 0.226826 -0.332431
42 2 4 32.2422 0.490361 0.678002 -0.128089 0.0502232 0.689634
17 1 1 2.51548 0.59243 0.724987 -0.479285 0.639022 -0.209301
44 2 2 32.8162 1.65987 1.59658 0.385749 -0.597686 -0.367166
96 3 1 2.00436 31.9896 1.2961 0.338076 -0.307665 -0.577571
95 3 2 1.98808 31.3548 0.551227 -0.0480937 -0.373671 -0.23169
94 3 2 2.69149 32.0014 0.375949 -0.400188 -0.127079 -0.0436465
47 2 2 32.8124 0.356484 2.43211 -0.518025 -0.226987 0.394069
45 2 3 32.3806 1.36622 2.38572 -0.258842 0.190704 0.676774
97 3 1 1.19851 32.4658 1.45315 0.270362 0.093858 0.23533
48 2 1 32.3595 0.523142 1.59393 -0.243829 -0.292436 0.182599
46 2 1 0.0435268 1.0889 3.00618 -0.141582 -0.0549787 -0.306866
100 3 2 0.483585 31.5932 3.14587 0.713695 -0.465009 0.649935
99 3 2 1.19623 31.1389 2.67023 0.211343 0.470226 0.244644
101 3 4 0.734068 30.9359 3.78049 -0.0122517 -0.33178 -0.444609
98 3 4 1.17853 31.9938 2.26953 0.182392 -0.208282 -0.309797
102 3 3 0.612885 31.868 3.97881 -0.0660604 0.237312 0.650101
104 3 2 0.650958 32.798 3.80799 0.704878 0.0422668 0.570562
103 3 4 0.0618876 32.461 4.48535 0.352873 -0.564325 -0.103881
105 3 3 0.192609 32.2792 4.48627 0.0417824 0.553618 0.0920313
107 3 1 0.438842 0.602374 5.70804 -0.336212 0.50558 -0.332625
106 3 2 0.0743326 0.154327 4.92638 -0.307842 -0.551723 -0.267249
108 3 2 32.7379 0.0403127 6.07098 0.301664 0.285501 0.679905
109 3 2 32.1208 0.438592 6.73636 0.17482 0.312687 -0.285372
111 3 2 30.4956 1.15437 6.72327 0.0720802 0.415235 0.542801
110 3 4 31.2004 0.538039 6.5301 0.0786712 -0.998447 0.140208
112 3 4 30.1993 1.86597 7.31258 -0.153526 -0.20554 -0.135104
114 3 1 29.6227 3.30342 8.16539 0.173131 -0.279445 0.230416
117 3 4 30.3417 2.94448 8.3346 0.195636 -0.383674 0.24283
113 3 2 30.0771 2.46989 8.04535 0.172776 0.411457 0.0441083
115 3 3 30.3677 2.72531 8.36048 0.141239 -0.476536 0.0854621
116 3 4 30.7416 2.91079 7.49539 0.210745 0.194344 0.120134
118 3 1 30.4962 2.5839 9.18969 -0.434498 0.0360937 -0.326545
120 3 2 29.7074 1.62638 10.6509 -0.518456 -0.144317 0.0249197
119 3 3 30.0372 2.02766 9.84452 -0.518036 0.525543 -0.49994
76 2 4 25.81 30.5415 26.9359 -0.381021 0.0487118 0.472909
80 2 2 24.3057 28.8136 26.8873 -0.234061 0.0105514 -0.245078
79 2 3 25.2235 28.6255 26.807 0.241403 -0.255694 0.40064
73 2 2 27.4145 29.8189 27.8005 0.229067 0.0704125 -0.190296
75 2 3 26.3843 29.7719 26.9415 0.0727578 0.0480248 0.00998118
77 2 4 26.5111 29.899 27.0885 0.177079 -0.279256 0.35345
74 2 1 26.4495 29.8013 27.8921 0.0430721 -0.252937 -0.449913
72 2 4 27.471 29.4833 28.6993 -0.00803802 0.104314 -0.36282
78 2 1 26.0809 29.104 26.7532 0.755013 -0.228144 -0.119265
71 2 2 28.1761 28.9672 29.1525 -0.432676 0.0686095 -0.755098
70 2 4 27.4467 29.5431 29.3961 -0.0814761 0.477076 0.101651
3 1 1 30.5198 2.91331 29.7291 0.203568 0.137199 0.315675
69 2 2 27.8463 29.4497 30.2694 0.523271 0.197009 -0.0171746
85 3 2 1.28425 1.95886 30.3427 0.303569 -0.218503 -0.105144
4 1 3 30.2196 2.48824 30.5345 -0.137768 -0.263633 0.445522
2 1 3 31.4107 2.79577 30.1173 0.512069 -0.362742 -0.172762
68 2 2 28.708 29.5627 30.6923 0.282817 -0.0896461 0.251824
37 1 4 10.4277 0.68949 31.3079 0.514449 0.451871 0.111887
39 1 3 10.5263 0.523171 31.4224 -0.659167 0.564748 0.166251
89 3 2 1.99892 0.953931 31.8803 -0.196815 0.390762 0.232256
90 3 1 2.77506 0.443748 31.686 -0.0617798 -0.16068 -0.24768
29 1 2 7.24305 0.806039 31.656 0.0752357 -0.486612 0.00574119
5 1 1 29.9768 1.64195 30.942 0.0339613 -0.346545 -0.360156
1 1 3 31.2708 1.99175 29.6362 -0.622176 0.445197 -0.0696883
67 2 2 29.2042 30.1066 31.324 0.0335503 0.0217262 0.622685
64 2 4 28.8498 30.4806 31.4182 -0.0449478 0.486511 -0.23382
40 1 2 10.7987 0.897112 30.5768 0.429692 0.445734 0.361295
28 1 2 7.39636 32.871 31.6986 0.313053 0.129059 0.142319
30 1 4 8.19819 0.911322 31.4699 -0.245505 -0.221027 0.299083
31 1 2 8.88023 1.00565 30.7956 0.42935 -0.0455922 0.28784
36 1 4 9.53008 1.00651 31.5368 0.139428 0.0882969 -0.54794
7 1 4 30.8002 0.780278 32.3298 0.28416 0.442134 -0.0405632
84 3 3 1.13263 1.947 31.2986 0.356769 -0.495485 0.156138
86 3 4 1.32095 1.81763 31.3039 0.503314 0.394939 0.0286631
88 3 2 1.3317 0.485222 32.3549 -0.574644 0.0404273 0.0206845
38 1 1 11.0622 1.25652 31.7331 0.652871 -0.306143 0.0915824
6 1 2 30.6752 1.3044 31.5183 -0.0220468 -0.0955579 -0.291421
8 1 1 30.0863 1.18165 32.8306 -0.255799 0.0895638 0.369992
83 3 1 0.973665 2.83508 31.5889 -0.0928917 0.114946 0.143559
87 3 3 0.941243 1.30241 32.0293 -0.377972 -0.0841336 -0.190632
82 3 1 1.10668 3.30443 32.4079 0.54298 -0.039441 -0.227124
66 2 4 29.6131 30.9642 31.3076 -0.30203 -0.435319 -0.285706
63 2 3 29.7486 30.795 31.3373 0.368999 -0.499058 -0.219291
62 2 1 30.4105 31.4619 31.6131 0.391478 0.387333 -0.298045
61 2 4 31.3367 31.2807 31.7451 -0.294789 0.147252 -0.00310323
25 1 2 6.48661 32.2155 32.4646 0.670933 0.113433 -0.187523
65 2 2 28.7286 31.3658 31.1336 0.0800299 0.323957 -0.33439
60 2 2 31.4924 31.9693 31.0881 0.381912 0.18266 0.457791
91 3 3 3.59671 0.0368554 31.4536 0.328711 -0.302362 0.581013
22 1 2 4.23034 33.0103 31.9452 -0.0440394 0.31576 -0.179708
23 1 1 5.05318 0.476963 32.2004 0.053257 0.180633 -0.0355541
59 2 4 31.9266 32.4832 31.7609 0.134762 -0.204212 -0.21759
58 2 1 32.7103 32.8503 32.1611 0.118804 0.336808 -0.334273
54 2 3 1.1387 32.5313 0.36675 -0.177833 0.0959499 -0.0461331
56 2 4 1.24033 32.6259 0.195093 0.147695 -0.278488 0.268093
19 1 4 3.73004 32.9846 32.8385 0.707719 -0.135491 0.00190335
27 1 4 6.68575 0.137105 32.2674 0.478504 -0.563367 -0.643882
9 1 3 30.8825 0.988953 32.3561 -0.736158 -0.300745 -0.347376
33 1 2 8.37227 0.651616 32.2336 0.262554 -0.401611 0.337084
32 1 4 8.88535 0.321224 31.4955 0.402102 -0.816362 -0.217289
35 1 3 9.0369 0.199731 31.6211 -0.539966 0.238551 -0.296367
81 3 3 0.870499 2.38434 32.4763 0.0541743 0.117993 -0.153848
57 2 3 0.472936 32.9373 32.7014 -0.675059 -0.0157509 -0.445018
14 1 4 0.270558 32.8345 32.6701 -0.516964 -0.0855085 0.282598
21 1 3 3.53094 32.4301 32.1968 0.448892 -0.208058 0.0836177
92 3 4 3.6104 32.2843 32.043 0.424879 -0.570464 -0.00645807
26 1 4 5.84399 32.7844 32.0453 0.0563159 0.102841 -0.216089
24 1 3 5.81097 32.8549 32.2691 -0.481706 0.0128869 0.308854
ITEM: TIMESTEP
20000
ITEM: NUMBER OF ATOMS
120
ITEM: BOX BOUNDS pp pp pp
0.0000000000000000e+00 3.3000000000000000e+01
0.0000000000000000e+00 3.3000000000000000e+01
0.0000000000000000e+00 3.3000000000000000e+01
ITEM: ATOMS id mol type x y z vx vy vz
16 1 4 0.340824 1.36106 32.3215 0.0923973 0.266142 -0.441756
7 1 4 31.0369 0.00267967 32.3452 -0.540727 -0.191051 -0.284995
9 1 3 30.9168 0.0379671 32.5455 0.528943 -0.207175 0.706801
11 1 4 31.911 0.657105 0.779781 0.232755 0.41706 -0.20503
15 1 3 32.8635 0.681244 32.7826 -0.569477 0.623784 0.255749
6 1 2 30.7349 0.895095 32.4802 -0.196623 -0.55302 -0.217729
41 2 3 31.7014 0.593567 0.809296 0.469519 -0.895231 0.186459
5 1 1 31.2958 1.4982 32.9656 -0.381086 0.393953 -0.245981
13 1 1 0.380094 0.100851 0.581554 0.193525 0.141205 -0.240098
53 2 4 0.0608374 0.632876 32.874 -0.417541 -0.215179 -0.914624
58 2 1 32.0193 31.9762 0.29184 -0.885846 -0.0933539 -0.538789
59 2 4 31.7792 31.4252 32.5407 0.632019 0.52056 -0.282775
94 3 2 2.16294 32.3382 0.35498 -0.23841 0.454585 0.377534
93 3 1 2.52148 32.7325 32.558 0.602913 -0.2697 0.475492
8 1 1 31.0808 32.1224 32.7457 -0.125272 0.238451 0.00461017
14 1 4 32.6786 32.7687 0.011479 -0.220006 -0.76578 0.0252721
10 1 1 31.252 0.0672389 0.445154 -0.34818 0.236699 -0.107159
12 1 2 32.4618 0.0243399 0.3307 -0.32784 0.117635 -0.13938
52 2 4 0.363271 1.06487 0.660571 -0.0739447 0.477142 0.737754
51 2 1 32.7022 0.959677 1.35785 0.868126 0.160093 -0.242892
42 2 4 32.5485 1.04826 0.876978 -0.014303 0.0912745 -0.0981346
49 2 3 32.4829 1.03365 1.09532 -0.284954 0.0827752 -0.501999
50 2 3 0.364652 1.26545 0.771584 -0.101258 -0.343421 0.718974
48 2 1 32.7601 1.72008 0.462089 -0.00145308 0.00882932 0.0768155
97 3 1 0.627659 31.8072 1.19732 0.215748 0.521521 -0.142513
96 3 1 1.47192 32.0518 1.58661 0.459498 -0.850983 -0.943793
95 3 2 1.40009 32.6462 0.880496 -0.877297 0.146482 -0.000534495
43 2 3 31.8934 1.38382 1.51539 0.024489 -0.0270472 -0.345736
44 2 2 32.3658 1.57876 2.31362 0.0260743 0.146955 -0.396501
46 2 1 31.6646 2.6432 1.45926 -0.227767 -0.497346 0.027256
47 2 2 32.0196 1.86106 1.06362 -0.346619 -0.359301 0.267209
99 3 2 0.128275 32.1567 2.10216 0.15868 0.443658 -0.001367
98 3 4 0.471244 31.2762 1.97345 -0.00971251 -0.00996311 0.366866
45 2 3 31.6727 2.26591 2.33943 0.383096 0.695603 -0.186795
100 3 2 32.23 31.8076 1.96346 -0.156066 0.308345 0.143665
102 3 3 32.5346 31.6248 2.47221 0.143837 -0.142534 0.436216
101 3 4 31.9155 30.9259 2.19981 0.0109465 0.258089 0.720923
105 3 3 32.8401 32.1558 3.34615 -0.301045 -0.280349 0.489809
103 3 4 32.9231 32.1823 3.13704 0.0300016 -0.45197 -0.536336
104 3 2 0.758701 32.1237 3.57914 -0.368758 -0.00232314 0.207783
106 3 2 32.0731 31.5678 3.47001 0.0789634 0.161503 -0.140801
107 3 1 31.5087 31.9937 4.15413 -0.0749471 0.116728 0.374953
109 3 2 31.0825 0.0895966 4.78903 -0.033343 0.480988 0.210879
108 3 2 31.5663 32.9331 3.97378 0.27005 -0.300494 0.427957
111 3 2 31.3259 0.540227 5.99709 0.604006 -0.205802 -0.491901
110 3 4 31.0886 32.6789 5.62901 -0.283755 -0.0312559 -0.531149
112 3 4 31.0256 1.32414 6.4402 0.104108 -0.217191 -0.25571
113 3 2 30.6442 2.16846 6.63195 -0.0714064 -0.154513 1.04377
117 3 4 30.3023 2.13162 7.55133 0.227663 -0.139079 0.112896
114 3 1 29.7538 1.91139 6.92282 0.569654 -0.0515798 -0.243238
116 3 4 30.9274 2.78026 7.91213 0.134017 -0.192155 -0.460094
115 3 3 30.5022 2.02423 7.56153 0.419855 -0.655424 -0.198343
120 3 2 31.4392 3.13399 7.28664 -0.291944 0.261871 0.13042
119 3 3 30.9914 2.5828 7.96665 0.386108 0.29546 0.0752266
118 3 1 30.3079 3.07391 7.51935 -0.125439 0.492634 0.221814
77 2 4 25.4475 28.4409 29.1666 0.163045 0.411248 0.105775
75 2 3 25.5774 28.4214 28.9797 0.0337395 0.379272 0.196
74 2 1 26.5005 28.6815 28.848 0.134462 0.277208 0.0480447
73 2 2 27.4749 28.6795 28.7416 0.107545 0.259962 -0.158182
81 3 3 2.45872 2.43951 30.6077 0.264305 -0.177926 -0.275137
76 2 4 25.821 27.6232 29.4611 0.198513 0.225062 0.0172014
79 2 3 25.6563 27.6812 29.6029 -0.48425 -0.104565 -0.111844
78 2 1 25.8102 28.5043 30.0534 0.11488 0.0588394 0.601346
72 2 4 27.4507 29.2557 29.4732 0.227866 0.412986 -0.156103
71 2 2 28.0695 29.9949 29.6399 -0.270041 0.602339 -0.600723
69 2 2 29.189 30.2341 30.1976 0.221166 -0.686927 -0.0709074
38 1 1 10.4268 0.698366 31.2775 -0.137125 -0.25804 -0.0631002
83 3 1 2.03928 3.64896 31.6785 0.0975321 0.470487 0.213121
82 3 1 1.78693 2.98082 31.0544 0.081456 0.126367 0.37671
80 2 2 26.1752 27.5077 30.3853 0.436441 -0.0986829 0.221534
70 2 4 28.5804 30.7922 29.7055 0.232965 -0.080213 -0.318666
25 1 2 5.71839 31.9712 31.3498 -0.0456133 0.19156 -0.297849
68 2 2 28.9428 30.9975 29.6409 -0.297457 0.0836162 -0.0547244
37 1 4 10.6395 32.9846 31.8735 0.101764 0.131301 -0.0879643
39 1 3 10.6271 32.8691 31.6822 0.261755 -0.195427 -0.320642
40 1 2 10.1279 32.3189 31.0592 -0.200852 0.566786 0.257633
31 1 2 8.73671 0.0839577 32.5111 -0.173077 0.368204 0.567357
32 1 4 9.12957 0.935407 32.2786 -0.10538 -0.017257 -0.455496
86 3 4 2.73268 3.15996 31.5046 -0.251113 0.422278 -0.292241
64 2 4 28.8911 31.0831 30.8835 -0.00238556 -0.682729 0.721758
67 2 2 28.9842 31.3809 30.5131 0.70944 0.399543 -0.149711
63 2 3 29.6562 31.3402 31.4384 -0.172352 0.173555 -0.312516
66 2 4 29.539 31.2329 31.2799 -0.0909099 -0.362335 0.018715
24 1 3 5.18568 32.4079 32.0265 -0.337908 0.511759 -0.159162
26 1 4 5.11622 32.5536 31.8694 0.00341913 -0.215354 -0.319283
30 1 4 8.10639 0.168616 31.76 -0.087452 -0.251378 0.0716214
17 1 1 1.2663 1.30914 32.6113 0.246347 -0.0642376 -0.276028
20 1 3 2.61266 32.9969 31.571 -0.777382 0.220758 -0.591287
28 1 2 6.61603 0.552377 31.7452 -0.18651 -0.312731 0.18945
29 1 2 7.23115 32.826 31.6648 0.226087 0.0457628 0.284609
34 1 1 9.6028 1.60119 32.5173 0.215962 0.307207 -0.0081341
56 2 4 32.8622 0.172652 32.2948 0.160982 -0.117959 -0.316155
90 3 1 3.07048 1.58189 31.5229 -0.45023 0.117776 -0.33043
35 1 3 9.07351 0.79754 32.4523 0.0705752 0.0585284 0.242991
36 1 4 9.81648 0.259484 32.2389 -0.202045 -0.122348 -0.14303
33 1 2 9.21593 1.62747 31.6313 0.326185 0.768885 0.155905
2 1 3 32.2214 1.39383 31.6644 -0.476304 -0.336247 -0.198906
88 3 2 3.33923 2.12147 32.5943 -0.268884 -0.275895 0.0894008
1 1 3 32.4414 2.0829 32.3102 -0.456655 0.455479 -0.190135
84 3 3 2.84075 3.2405 31.3184 0.363232 0.249482 -0.3715
87 3 3 2.79775 2.26664 31.8332 -0.200023 -0.367044 -0.414724
85 3 2 3.47847 3.59767 31.9299 -0.163203 0.477214 -0.157779
65 2 2 29.0172 30.5835 31.6986 -0.40967 0.18409 0.496393
62 2 1 30.0109 30.9593 32.2761 -0.0588325 0.307388 0.393821
23 1 1 5.11204 0.0856794 32.7015 -0.120247 0.23082 -0.154189
27 1 4 5.71634 0.264383 31.6406 -0.0131572 0.312204 -0.137232
19 1 4 2.94815 0.8503 31.8707 0.344165 0.150025 0.0410254
91 3 3 3.08137 0.676602 31.8313 0.712041 0.149004 0.140037
55 2 1 32.3573 0.797252 31.7833 0.284527 0.459394 -0.0291974
54 2 3 32.9515 0.111887 32.091 -0.355104 -0.0942977 0.0809043
18 1 2 2.16471 1.21341 32.2979 0.456173 -0.149768 -0.254464
4 1 3 31.9188 1.6546 32.2584 -0.0359424 -0.424243 -0.73591
89 3 2 3.82961 1.50385 32.0753 -0.0960383 0.214514 0.0828495
3 1 1 32.509 2.27471 31.8168 -0.0241161 -0.87451 -0.317557
61 2 4 30.8716 30.536 32.3837 -0.880968 0.25644 0.224
60 2 2 31.7783 30.5057 32.7546 0.20585 -0.514469 0.0982254
92 3 4 3.42575 32.9552 32.3325 -0.803243 -0.278023 -0.196367
21 1 3 3.30504 0.122459 32.2359 -0.887573 -0.125626 -0.186176
22 1 2 4.14865 0.146254 32.6921 -0.843126 0.254285 0.16699
57 2 3 32.7491 32.5508 0.023936 -0.00380336 0.141672 -0.292644
ITEM: TIMESTEP
30000
ITEM: NUMBER OF ATOMS
120
ITEM: BOX BOUNDS pp pp pp
0.0000000000000000e+00 3.3000000000000000e+01
0.0000000000000000e+00 3.3000000000000000e+01
0.0000000000000000e+00 3.3000000000000000e+01
ITEM: ATOMS id mol type x y z vx vy vz
26 1 4 4.13173 0.208902 1.07265 0.760867 -0.0584251 0.0607057
27 1 4 5.07889 0.229276 0.962238 -0.144212 0.22863 0.308182
9 1 3 30.7938 0.5904 32.7685 0.144457 -0.0587207 -0.275345
10 1 1 31.6578 0.880581 0.0940159 0.071384 -0.459754 -0.379938
28 1 2 5.40199 32.9392 0.106085 -0.185904 0.0122537 -0.343399
8 1 1 30.033 33.0211 32.7963 0.0188208 0.213335 0.0256591
86 3 4 2.23375 1.78926 32.5441 0.501613 0.190692 0.209243
84 3 3 2.28621 1.99919 32.4711 0.180376 0.663331 0.350927
42 2 4 0.0569077 1.11378 0.0761354 -0.68043 -0.305698 -0.244703
43 2 3 0.0693327 1.63234 0.916856 -0.227351 0.216552 0.519578
44 2 2 0.532644 2.46535 0.813425 -0.394275 0.397259 -0.246042
94 3 2 2.80546 30.447 0.729972 0.208793 0.645039 0.264557
95 3 2 1.86622 30.3737 0.635783 0.0284602 0.168808 -0.108763
93 3 1 3.32302 30.4131 32.9283 -0.0501306 0.195625 0.129569
20 1 3 2.33821 31.9034 32.7865 -0.180586 0.0742535 -0.223497
97 3 1 1.68856 31.3036 1.77325 -0.645749 -0.479794 0.176695
22 1 2 3.33778 32.1531 32.9562 0.151146 -0.266847 -0.454005
18 1 2 2.11728 32.5333 0.448923 -0.468123 -0.553916 0.539869
13 1 1 0.365661 0.937034 32.8959 -0.050662 0.681134 -0.269873
90 3 1 2.85492 32.4678 1.4863 -0.236388 0.475588 0.166688
24 1 3 4.04313 0.269964 0.886617 0.0577494 -0.0327287 -0.390493
48 2 1 0.0215078 1.30696 0.95474 0.0110148 0.105697 -0.419718
87 3 3 2.3732 1.46479 0.447546 0.0239013 -0.107828 -0.368575
47 2 2 32.2437 1.84208 1.14394 0.0163664 -0.0708093 -0.70447
45 2 3 0.0296653 3.18231 1.24139 0.156583 -0.547225 0.0248314
96 3 1 1.35244 30.4665 1.45115 -0.624933 -0.156237 0.484287
21 1 3 3.01099 31.2804 0.0599949 -0.160416 -0.732313 0.34412
92 3 4 2.95918 31.2141 0.277646 0.603888 -0.146607 0.423116
91 3 3 2.56188 31.9612 0.711395 -0.379368 0.545204 -0.737176
98 3 4 1.02406 31.5884 1.09838 -0.2888 -0.303662 -0.251009
19 1 4 2.59729 31.7323 0.691822 -0.545617 -0.556918 0.355258
23 1 1 4.00265 32.8535 0.0390534 0.116068 0.172605 -0.594441
89 3 2 2.3197 0.250815 1.35586 0.0918388 0.0108138 0.188878
25 1 2 4.35815 1.11455 1.25905 -0.165781 -0.125531 -0.00335722
46 2 1 32.1773 2.74071 1.43266 -0.268721 0.206565 -0.125296
88 3 2 2.30782 1.21531 1.35452 0.515857 0.38541 -0.223234
99 3 2 0.937908 32.2722 1.76984 -0.101316 -0.258963 0.232393
100 3 2 1.57516 32.66 2.37048 -0.524469 0.924294 -0.12964
101 3 4 1.34049 32.9249 3.26879 -0.655459 0.552294 0.0761706
102 3 3 0.825327 32.3737 3.89785 0.248578 -0.144005 -0.152382
105 3 3 0.913576 0.335089 4.01695 0.0511599 0.0341268 0.409518
103 3 4 1.09349 0.319502 3.87908 0.238622 0.121806 0.011001
106 3 2 0.741488 1.15314 4.48417 0.0860378 -0.660253 -0.38171
104 3 2 0.873355 32.3915 3.8941 0.0676555 -0.14861 0.0714444
110 3 4 31.7364 0.8293 5.56589 0.0994342 0.00461093 0.296537
107 3 1 0.617172 1.98498 4.9123 0.250529 0.0529914 -0.0433497
111 3 2 31.1891 0.0598181 5.57976 0.517956 0.13119 -0.180112
109 3 2 32.5522 1.16092 5.97645 -0.309753 0.210131 0.24159
108 3 2 32.8696 1.97034 5.53011 0.368487 -0.122392 0.199345
120 3 2 31.3822 1.59317 6.90679 -0.0323673 0.44564 0.170882
118 3 1 30.0744 2.32629 7.24871 -0.111652 0.172361 0.741542
119 3 3 30.4804 1.71789 6.63795 0.043693 0.246133 0.138572
116 3 4 30.6798 1.63298 6.69776 0.36968 -0.144685 0.292573
112 3 4 30.9974 0.684331 6.29103 0.15435 -0.126367 0.0181521
113 3 2 30.1025 0.655536 6.61365 -0.484083 0.334292 -0.386598
115 3 3 30.2712 1.21657 7.42854 0.139792 0.0163464 0.333962
117 3 4 30.1539 1.40763 7.46692 0.466085 -0.165074 0.20696
114 3 1 29.3898 1.16639 6.99024 -0.0136039 0.349573 -0.44367
80 2 2 25.3808 28.7562 27.4567 0.346069 -0.617764 0.478114
76 2 4 26.4022 29.223 27.5948 0.201218 0.300565 -0.0799073
79 2 3 26.2065 29.1983 27.7009 -0.152055 0.20786 -0.0948267
78 2 1 26.5204 28.2755 27.7989 -0.131409 -0.342463 0.419564
77 2 4 26.1606 28.8824 28.4622 -0.449182 0.15835 -0.144069
75 2 3 26.0802 28.7022 28.3588 0.330771 -0.439575 0.0522041
74 2 1 25.8784 29.5879 28.6847 -0.470603 -0.0449551 0.295311
73 2 2 26.7308 29.1997 28.3999 0.36641 0.611221 0.6315
72 2 4 27.1954 28.3991 28.5887 -0.108992 -0.236883 0.567262
70 2 4 27.8459 29.8053 29.6722 -0.00361946 0.345394 0.428888
69 2 2 28.7131 30.0328 30.0226 -0.136261 -0.00556605 -0.00351019
68 2 2 29.5794 30.4232 29.9727 0.180958 0.347307 0.156283
34 1 1 6.94241 1.86582 30.3769 0.24979 0.201679 0.341951
33 1 2 7.86126 2.06287 30.6196 0.272564 0.775128 -0.208333
71 2 2 27.4603 29.0119 29.2619 -0.513603 0.129541 0.139094
67 2 2 29.9605 31.3016 29.9926 0.281515 0.38276 0.126094
64 2 4 29.3512 32.035 31.0641 -0.165547 0.127015 0.556723
65 2 2 29.647 31.2913 31.607 0.265322 0.176492 -0.350899
4 1 3 32.1289 1.17664 31.6799 0.206646 0.292027 -0.257228
32 1 4 7.38005 1.40462 31.1464 -0.366725 0.326411 0.0763903
35 1 3 7.48994 1.59292 31.1072 -0.528501 -0.126119 -0.274798
36 1 4 7.5221 0.768101 30.6347 0.854751 -0.195858 0.0813378
40 1 2 8.35265 0.580905 32.1265 -0.114122 -0.362051 0.310301
66 2 4 30.2789 31.3274 30.8987 0.0689881 0.133588 0.437611
62 2 1 30.9609 31.8017 30.6453 -0.211609 1.09622 -0.162424
63 2 3 30.0844 31.4256 30.9359 -0.123035 -0.0343465 0.769685
61 2 4 31.866 32.1023 30.6211 -0.155344 0.0421688 -0.28161
16 1 4 1.41415 0.123999 32.7868 0.175726 -0.269686 -0.422711
38 1 1 9.01464 32.8702 30.8717 -0.134709 0.15694 0.18338
51 2 1 1.09397 1.85739 32.2951 -0.084676 0.2186 -0.0792467
31 1 2 6.49685 1.15093 31.3626 0.586149 -0.238104 -0.128158
37 1 4 8.28646 0.436603 31.0831 -0.0129678 0.093985 -0.374027
39 1 3 8.44596 0.597735 31.1451 -0.155986 0.0716455 0.500136
3 1 1 31.6133 1.63614 32.3365 -0.112515 0.642183 0.112244
85 3 2 2.97694 1.73358 0.142106 -0.225802 -0.0351526 0.443947
2 1 3 31.0572 2.35966 32.0046 -0.575351 0.553024 -0.126389
81 3 3 3.38294 3.55916 0.471895 -0.429777 -0.521662 -0.381875
1 1 3 31.0437 2.35371 31.0722 -0.279183 -0.441569 -0.506729
60 2 2 32.5516 31.7494 31.1651 0.476164 0.814236 0.460817
59 2 4 0.254872 32.0173 31.7539 0.0225641 -0.38146 0.193358
5 1 1 31.5649 0.423896 31.9367 -0.448579 0.678885 0.050061
58 2 1 32.5789 32.5821 32.1703 -0.205115 -0.157915 -0.0962049
15 1 3 0.641254 0.211122 32.1862 0.551018 -0.595129 0.359538
53 2 4 0.72994 0.117594 32.0049 0.329324 0.225317 0.137764
7 1 4 30.8516 0.478604 32.9518 0.586803 -0.436643 -0.709473
12 1 2 32.7059 1.32168 32.3293 -0.489609 -0.0893009 -0.509354
50 2 3 0.935898 0.931981 32.5481 -0.175459 0.628658 -0.372739
52 2 4 1.13276 0.880032 32.4496 0.0176174 0.0447612 -0.436099
29 1 2 5.62331 0.118009 32.1689 -0.572153 -0.337095 -0.0426407
11 1 4 32.3156 1.57028 0.180208 -0.15158 0.340153 0.0859106
41 2 3 32.3679 1.78483 0.180837 -0.222888 -0.397695 0.757793
49 2 3 0.206005 1.27435 0.0354771 -0.0271223 0.137111 -0.386856
30 1 4 5.95045 1.04628 32.1335 -0.0310362 -0.363963 0.14159
83 3 1 2.51078 2.88331 32.2091 -0.0880442 0.0478553 0.0469598
82 3 1 2.63233 3.04918 0.145099 -0.722753 0.170242 0.483784
55 2 1 0.435585 31.9957 32.7531 -0.405096 0.224406 -0.336074
56 2 4 32.9226 32.7829 32.5965 0.582947 0.209455 0.187528
54 2 3 0.10228 32.8862 32.6707 -0.595473 0.628769 -0.360358
57 2 3 32.6232 0.527727 32.0683 -0.178412 0.202483 0.370677
17 1 1 1.42563 0.110943 0.77483 -0.109521 0.19077 0.347999
6 1 2 31.0666 32.7374 32.4014 0.085371 0.149004 -0.102937
14 1 4 32.7673 0.608219 32.2196 -0.512969 -0.0374451 -0.0913613
ITEM: TIMESTEP
40000
ITEM: NUMBER OF ATOMS
120
ITEM: BOX BOUNDS pp pp pp
0.0000000000000000e+00 3.3000000000000000e+01
0.0000000000000000e+00 3.3000000000000000e+01
0.0000000000000000e+00 3.3000000000000000e+01
ITEM: ATOMS id mol type x y z vx vy vz
30 1 4 6.03401 0.786545 0.752414 0.0266278 -0.49957 -0.0496896
56 2 4 32.5315 1.65751 32.9032 0.0758115 0.059644 0.323067
54 2 3 32.5277 1.79832 32.7224 -0.137321 -0.345861 -0.0667694
25 1 2 4.61159 0.374597 32.9418 -0.231303 0.113159 0.0562753
10 1 1 32.367 1.51405 32.9878 0.205595 -0.479568 -0.26601
6 1 2 31.19 1.22158 1.16414 0.42873 0.221453 0.180044
7 1 4 31.5751 1.9605 0.679486 -0.142905 0.122981 0.648287
9 1 3 31.7102 2.02353 0.511638 -0.136345 0.117299 0.248384
47 2 2 0.486118 3.25257 0.318679 0.310674 0.280708 -0.017883
22 1 2 3.67039 31.9129 1.51448 -0.167041 0.0270942 0.108947
18 1 2 1.32078 32.0384 0.457346 0.196123 -0.228787 -0.623217
89 3 2 3.07573 0.610662 0.948775 -0.0988126 0.527791 0.0583645
87 3 3 2.46466 32.9397 32.2667 -0.219053 0.230841 0.2971
26 1 4 5.00217 0.365772 0.812703 0.327709 -0.00125789 -0.376776
58 2 1 32.155 0.227162 32.876 -0.0367909 0.89659 0.0634805
20 1 3 2.27694 32.5731 1.75801 -0.284293 -0.49852 0.293716
90 3 1 2.57918 32.8865 1.32819 0.0697579 -0.249638 0.413979
27 1 4 4.26064 0.0207705 1.35726 0.294158 -0.367119 -0.173812
29 1 2 5.20754 0.288661 0.841781 -0.00160121 0.0865717 0.0215753
46 2 1 1.43689 3.40707 0.417224 -0.166448 0.0564609 0.0388182
21 1 3 2.90113 32.302 1.09166 0.382451 0.079864 0.101892
23 1 1 4.20436 32.6517 1.24198 0.125321 -0.0788775 0.313431
19 1 4 1.93675 31.9217 1.17619 0.191801 0.503885 0.286508
91 3 3 2.0913 32.0634 1.25445 0.0749635 -0.339404 0.205931
92 3 4 3.0278 32.1325 1.14793 -0.0223142 0.441427 -0.350536
24 1 3 4.81961 0.255072 0.882158 -0.0178561 -0.310949 -0.283018
104 3 2 31.0037 32.2819 2.09296 0.106451 0.565345 0.127603
28 1 2 5.02342 0.451806 1.77218 0.127983 -0.345902 0.0230673
8 1 1 31.1305 2.78231 0.413842 -0.131755 0.102321 -0.782051
101 3 4 32.567 30.7824 1.83942 -0.313606 0.344122 0.211696
95 3 2 1.33972 30.8277 2.19001 -0.387134 0.614594 -0.361702
99 3 2 31.5799 30.9692 2.17873 -0.30989 -0.340044 -0.17714
100 3 2 32.0971 31.6042 1.67135 -0.164047 -0.105709 -0.507769
93 3 1 2.1492 31.8563 1.42761 0.381318 0.0060535 0.250961
103 3 4 31.8325 32.2709 2.57489 0.217191 -0.397922 -0.255841
105 3 3 31.8992 32.1133 2.42069 0.331699 -0.418621 -0.66102
96 3 1 0.548657 30.9329 2.73018 0.0664392 -0.265393 0.61005
97 3 1 32.7566 30.7368 2.21709 0.185757 -0.0766135 0.0180574
94 3 2 2.08819 30.9165 1.56751 0.539737 -0.0854047 0.125258
98 3 4 32.2667 31.479 2.58249 -0.591883 -0.293121 0.384773
102 3 3 32.1038 31.3583 2.46321 0.225388 0.200932 -0.430577
106 3 2 32.0642 31.6946 3.27739 -0.00440476 0.358534 0.155673
107 3 1 31.8952 32.6613 3.45464 -0.2152 0.0650727 -0.676157