# LAMMPS data file
LAMMPS data file. CGDNA topology and configuration
120 atoms
120 ellipsoids
117 bonds

4 atom types
1 bond types

# System size
0.000000 33.000000 xlo xhi
0.000000 33.000000 ylo yhi
0.000000 33.000000 zlo zhi

Masses

1 3.1575
2 3.1575
3 3.1575
4 3.1575

# Atom-ID, type, position, molecule-ID, ellipsoid flag, density
Atoms

1 3 -3.973606109619141e+00 -1.644155859947205e+00 -3.782001495361328e+00 1 1 1
2 3 -3.440773010253906e+00 -1.575551748275757e+00 -3.774162292480469e+00 1 1 1
3 1 -2.984519958496094e+00 -1.293642520904541e+00 -3.741874694824219e+00 1 1 1
4 3 -2.674648284912109e+00 -8.801411986351013e-01 -3.594631195068359e+00 1 1 1
5 1 -2.525352478027344e+00 -4.667479991912842e-01 -3.285594940185547e+00 1 1 1
6 2 -2.489822387695312e+00 -1.851285099983215e-01 -2.829399108886719e+00 1 1 1
7 4 -2.478012084960938e+00 -1.168830469250679e-01 -2.296588897705078e+00 1 1 1
8 1 -2.390880584716797e+00 -2.625443339347839e-01 -1.786811828613281e+00 1 1 1
9 3 -2.157993316650391e+00 -5.413852930068970e-01 -1.390960693359375e+00 1 1 1
10 1 -1.764289855957031e+00 -8.220740556716919e-01 -1.156654357910156e+00 1 1 1
11 4 -1.255813598632812e+00 -9.725830554962158e-01 -1.070137023925781e+00 1 1 1
12 2 -7.222328186035156e-01 -9.103378057479858e-01 -1.061500549316406e+00 1 1 1
13 1 -2.626838684082031e-01 -6.335949897766113e-01 -1.031253814697266e+00 1 1 1
14 4  5.175399780273438e-02 -2.221002578735352e-01 -8.881111145019531e-01 1 1 1
15 3  1.210840225219727e+00 -5.372614413499832e-02 -5.661468505859375e-01 1 1 1
16 4  1.597200393676758e+00  3.116196393966675e-01 -6.431579589843750e-01 1 1 1
17 1  2.043111801147461e+00  5.850155353546143e-01 -5.202827453613281e-01 1 1 1
18 2  2.520963668823242e+00  6.616178750991821e-01 -2.868766784667969e-01 1 1 1
19 4  2.990993499755859e+00  5.113580226898193e-01 -7.431411743164062e-02 1 1 1
20 3  3.416410446166992e+00  1.903601884841919e-01 -6.038665771484375e-03 1 1 1
21 3  3.777387619018555e+00 -1.803960800170898e-01 -1.506805419921875e-01 1 1 1
22 2  4.078559875488281e+00 -4.610232710838318e-01 -4.959716796875000e-01 1 1 1
23 1  4.347299575805664e+00 -5.458677411079407e-01 -9.534225463867188e-01 1 1 1
24 3  4.623302459716797e+00 -4.036638736724854e-01 -1.391933441162109e+00 1 1 1
25 2  4.943483352661133e+00 -8.941126614809036e-02 -1.687583923339844e+00 1 1 1
26 4  5.327913284301758e+00  2.765414714813232e-01 -1.770759582519531e+00 1 1 1
27 4  5.772468566894531e+00  5.541856288909912e-01 -1.652530670166016e+00 1 1 1
28 2  6.249940872192383e+00  6.370804309844971e-01 -1.420513153076172e+00 1 1 1
29 2  6.742197036743164e+00  7.297661304473877e-01 -1.622467041015625e+00 1 1 1
30 4  7.120265960693359e+00  6.960170269012451e-01 -1.242198944091797e+00 1 1 1
31 2  7.560388565063477e+00  4.973793029785156e-01 -1.006607055664062e+00 1 1 1
32 4  8.037071228027344e+00  2.499228715896606e-01 -9.906463623046875e-01 1 1 1
33 2  8.510816574096680e+00  8.821057528257370e-02 -1.185878753662109e+00 1 1 1
34 1  8.943284988403320e+00  1.142541095614433e-01 -1.503589630126953e+00 1 1 1
35 3  9.311925888061523e+00  3.587574958801270e-01 -1.808574676513672e+00 1 1 1
36 4  9.618303298950195e+00  7.693847417831421e-01 -1.970432281494141e+00 1 1 1
37 4  9.887680053710938e+00  1.230717897415161e+00 -1.913150787353516e+00 1 1 1
38 1  1.015941810607910e+01  1.608087062835693e+00 -1.643962860107422e+00 1 1 1
39 3  1.047188949584961e+01  1.798660039901733e+00 -1.250629425048828e+00 1 1 1
40 2  1.084811019897461e+01  1.770634412765503e+00 -8.680496215820312e-01 1 1 1
41 3 -8.587913513183594e-01  4.592822790145874e-01  6.258300781250000e+00 2 1 1
42 4 -1.125793457031250e+00  3.345692157745361e-01  5.809028625488281e+00 2 1 1
43 3 -1.351234436035156e+00  4.321573972702026e-01  5.331176757812500e+00 2 1 1
44 2 -1.415260314941406e+00  6.903204917907715e-01  4.864336013793945e+00 2 1 1
45 3 -1.259349822998047e+00  9.863502979278564e-01  4.443937301635742e+00 2 1 1
46 1 -9.085311889648438e-01  1.183126688003540e+00  4.087715148925781e+00 2 1 1
47 2 -4.618759155273438e-01  1.181249380111694e+00  3.789075851440430e+00 2 1 1
48 1 -5.487823486328125e-02  9.567921161651611e-01  3.519521713256836e+00 2 1 1
49 3  1.920394897460938e-01  5.703845024108887e-01  3.239507675170898e+00 2 1 1
50 3  2.192764282226562e-01  1.441812515258789e-01  2.913465499877930e+00 2 1 1
51 1  5.069732666015625e-02 -1.845252513885498e-01  2.523328781127930e+00 2 1 1
52 4 -2.154731750488281e-01 -3.155098557472229e-01  2.075344085693359e+00 2 1 1
53 4 -4.438781738281250e-01 -2.236463427543640e-01  1.597768783569336e+00 2 1 1
54 3 -5.135498046875000e-01  3.152500838041306e-02  1.130098342895508e+00 2 1 1
55 1 -7.960052490234375e-01 -2.020466923713684e-01 -3.903961181640625e-02 2 1 1
56 4 -1.026588439941406e+00  7.577513903379440e-02 -4.369354248046875e-01 2 1 1
57 3 -1.112079620361328e+00  2.188471555709839e-01 -9.477233886718750e-01 2 1 1
58 1 -1.123516082763672e+00  1.474236249923706e-01 -1.480125427246094e+00 2 1 1
59 4 -1.160079956054688e+00 -1.367614269256592e-01 -1.934650421142578e+00 2 1 1
60 2 -1.311424255371094e+00 -5.511209964752197e-01 -2.241386413574219e+00 2 1 1
61 4 -1.623573303222656e+00 -9.636327624320984e-01 -2.386577606201172e+00 2 1 1
62 1 -2.081485748291016e+00 -1.242967009544373e+00 -2.417835235595703e+00 2 1 1
63 3 -2.614719390869141e+00 -1.308390498161316e+00 -2.426063537597656e+00 2 1 1
64 4 -3.124225616455078e+00 -1.160442471504211e+00 -2.510906219482422e+00 2 1 1
65 2 -3.519973754882812e+00 -8.807200193405151e-01 -2.742912292480469e+00 2 1 1
66 4 -3.755142211914062e+00 -6.008892059326172e-01 -3.136707305908203e+00 2 1 1
67 2 -3.843925476074219e+00 -4.526507854461670e-01 -3.645458221435547e+00 2 1 1
68 2 -3.856128692626953e+00 -5.177191495895386e-01 -4.178661346435547e+00 2 1 1
69 2 -4.258518218994141e+00 -6.729215979576111e-01 -4.398822784423828e+00 2 1 1
70 4 -4.166240692138672e+00 -1.020871520042419e+00 -4.797691345214844e+00 2 1 1
71 2 -4.228042602539062e+00 -1.479690790176392e+00 -5.070362091064453e+00 2 1 1
72 4 -4.490329742431641e+00 -1.918217301368713e+00 -5.236457824707031e+00 2 1 1
73 2 -4.923343658447266e+00 -2.212995052337646e+00 -5.356086730957031e+00 2 1 1
74 1 -5.432411193847656e+00 -2.295191526412964e+00 -5.507030487060547e+00 2 1 1
75 3 -5.894023895263672e+00 -2.176723957061768e+00 -5.755153656005859e+00 2 1 1
76 4 -6.202678680419922e+00 -1.945755004882812e+00 -6.129398345947266e+00 2 1 1
77 4 -6.311008453369141e+00 -1.733179688453674e+00 -6.610820770263672e+00 2 1 1
78 1 -6.247699737548828e+00 -1.662913799285889e+00 -7.139736175537109e+00 2 1 1
79 3 -6.106693267822266e+00 -1.804803133010864e+00 -7.638397216796875e+00 2 1 1
80 2 -6.011428833007812e+00 -2.148090362548828e+00 -8.040588378906250e+00 2 1 1
81 3  6.214765548706055e+00 -5.590448379516602e-01 -1.510253906250000e+00 3 1 1
82 1  5.945827484130859e+00 -4.710551500320435e-01 -1.053508758544922e+00 3 1 1
83 1  5.643974304199219e+00 -1.883144974708557e-01 -7.105484008789062e-01 3 1 1
84 3  5.282047271728516e+00  1.827280521392822e-01 -5.689926147460938e-01 3 1 1
85 2  4.855901718139648e+00  5.020743608474731e-01 -6.399154663085938e-01 3 1 1
86 4  4.385480880737305e+00  6.493707895278931e-01 -8.536949157714844e-01 3 1 1
87 3  3.907821655273438e+00  5.696183443069458e-01 -1.086414337158203e+00 3 1 1
88 2  3.462589263916016e+00  2.940870523452759e-01 -1.206977844238281e+00 3 1 1
89 2  3.077157974243164e+00 -7.157511264085770e-02 -1.126888275146484e+00 3 1 1
90 1  2.756156921386719e+00 -3.874823451042175e-01 -8.338851928710938e-01 3 1 1
91 3  2.479768753051758e+00 -5.326454639434814e-01 -3.965911865234375e-01 3 1 1
92 4  2.211212158203125e+00 -4.509484767913818e-01  6.153869628906250e-02 3 1 1
93 1  1.910707473754883e+00 -1.724659800529480e-01  4.091529846191406e-01 3 1 1
94 2  1.550668716430664e+00  1.979781389236450e-01  5.568656921386719e-01 3 1 1
95 2  6.414680480957031e-01  2.511365413665771e-01  1.370279312133789e+00 3 1 1
96 1  3.917274475097656e-01  6.360325813293457e-01  1.649873733520508e+00 3 1 1
97 1 -1.673126220703125e-02  8.576245307922363e-01  1.919569015502930e+00 3 1 1
98 4 -4.629631042480469e-01  8.563737869262695e-01  2.218862533569336e+00 3 1 1
99 2 -8.115959167480469e-01  6.573917865753174e-01  2.575984954833984e+00 3 1 1
100 2 -9.644355773925781e-01  3.609207868576050e-01  2.997219085693359e+00 3 1 1
101 4 -8.975677490234375e-01  1.042394563555717e-01  3.464471817016602e+00 3 1 1
102 3 -6.706275939941406e-01  9.508724324405193e-03  3.942174911499023e+00 3 1 1
103 4 -4.040451049804688e-01  1.373608112335205e-01  4.390819549560547e+00 3 1 1
104 2 -2.332763671875000e-01  4.638632535934448e-01  4.781869888305664e+00 3 1 1
105 3 -2.574272155761719e-01  8.896175622940063e-01  5.108724594116211e+00 3 1 1
106 2 -5.015144348144531e-01  1.277514457702637e+00  5.389165878295898e+00 3 1 1
107 1 -9.070167541503906e-01  1.504827499389648e+00  5.658578872680664e+00 3 1 1
108 2 -1.354072570800781e+00  1.509849548339844e+00  5.956579208374023e+00 3 1 1
109 2 -1.816921234130859e+00  1.640095710754395e+00  6.180343627929688e+00 3 1 1
110 4 -2.230274200439453e+00  1.365079164505005e+00  6.385753631591797e+00 3 1 1
111 2 -2.464229583740234e+00  9.723026752471924e-01  6.668012619018555e+00 3 1 1
112 4 -2.495121002197266e+00  5.979393720626831e-01  7.052177429199219e+00 3 1 1
113 2 -2.376434326171875e+00  3.712130784988403e-01  7.524614334106445e+00 3 1 1
114 1 -2.218463897705078e+00  3.652395009994507e-01  8.038125991821289e+00 3 1 1
115 3 -2.146457672119141e+00  5.692738294601440e-01  8.529912948608398e+00 3 1 1
116 4 -2.252990722656250e+00  8.927716016769409e-01  8.945487976074219e+00 3 1 1
117 4 -2.562793731689453e+00  1.199831008911133e+00  9.259210586547852e+00 3 1 1
118 1 -3.023395538330078e+00  1.360748529434204e+00  9.484134674072266e+00 3 1 1
119 3 -3.525032043457031e+00  1.301388740539551e+00  9.667339324951172e+00 3 1 1
120 2 -3.942329406738281e+00  1.031289815902710e+00  9.871297836303711e+00 3 1 1

# Atom-ID, translational, rotational velocity
Velocities

1  0.000000000000000e+00  0.000000000000000e+00  0.000000000000000e+00  0.000000000000000e+00  0.000000000000000e+00  0.000000000000000e+00
2  0.000000000000000e+00  0.000000000000000e+00  0.000000000000000e+00  0.000000000000000e+00  0.000000000000000e+00  0.000000000000000e+00
3  0.000000000000000e+00  0.000000000000000e+00  0.000000000000000e+00  0.000000000000000e+00  0.000000000000000e+00  0.000000000000000e+00
4  0.000000000000000e+00  0.000000000000000e+00  0.000000000000000e+00  0.000000000000000e+00  0.000000000000000e+00  0.000000000000000e+00
5  0.000000000000000e+00  0.000000000000000e+00  0.000000000000000e+00  0.000000000000000e+00  0.000000000000000e+00  0.000000000000000e+00
6  0.000000000000000e+00  0.000000000000000e+00  0.000000000000000e+00  0.000000000000000e+00  0.000000000000000e+00  0.000000000000000e+00
7  0.000000000000000e+00  0.000000000000000e+00  0.000000000000000e+00  0.000000000000000e+00  0.000000000000000e+00  0.000000000000000e+00
8  0.000000000000000e+00  0.000000000000000e+00  0.000000000000000e+00  0.000000000000000e+00  0.000000000000000e+00  0.000000000000000e+00
9  0.000000000000000e+00  0.000000000000000e+00  0.000000000000000e+00  0.000000000000000e+00  0.000000000000000e+00  0.000000000000000e+00
10  0.000000000000000e+00  0.000000000000000e+00  0.000000000000000e+00  0.000000000000000e+00  0.000000000000000e+00  0.000000000000000e+00
11  0.000000000000000e+00  0.000000000000000e+00  0.000000000000000e+00  0.000000000000000e+00  0.000000000000000e+00  0.000000000000000e+00
12  0.000000000000000e+00  0.000000000000000e+00  0.000000000000000e+00  0.000000000000000e+00  0.000000000000000e+00  0.000000000000000e+00
13  0.000000000000000e+00  0.000000000000000e+00  0.000000000000000e+00  0.000000000000000e+00  0.000000000000000e+00  0.000000000000000e+00
14  0.000000000000000e+00  0.000000000000000e+00  0.000000000000000e+00  0.000000000000000e+00  0.000000000000000e+00  0.000000000000000e+00
15  0.000000000000000e+00  0.000000000000000e+00  0.000000000000000e+00  0.000000000000000e+00  0.000000000000000e+00  0.000000000000000e+00
16  0.000000000000000e+00  0.000000000000000e+00  0.000000000000000e+00  0.000000000000000e+00  0.000000000000000e+00  0.000000000000000e+00
17  0.000000000000000e+00  0.000000000000000e+00  0.000000000000000e+00  0.000000000000000e+00  0.000000000000000e+00  0.000000000000000e+00
18  0.000000000000000e+00  0.000000000000000e+00  0.000000000000000e+00  0.000000000000000e+00  0.000000000000000e+00  0.000000000000000e+00
19  0.000000000000000e+00  0.000000000000000e+00  0.000000000000000e+00  0.000000000000000e+00  0.000000000000000e+00  0.000000000000000e+00
20  0.000000000000000e+00  0.000000000000000e+00  0.000000000000000e+00  0.000000000000000e+00  0.000000000000000e+00  0.000000000000000e+00
21  0.000000000000000e+00  0.000000000000000e+00  0.000000000000000e+00  0.000000000000000e+00  0.000000000000000e+00  0.000000000000000e+00
22  0.000000000000000e+00  0.000000000000000e+00  0.000000000000000e+00  0.000000000000000e+00  0.000000000000000e+00  0.000000000000000e+00
23  0.000000000000000e+00  0.000000000000000e+00  0.000000000000000e+00  0.000000000000000e+00  0.000000000000000e+00  0.000000000000000e+00
24  0.000000000000000e+00  0.000000000000000e+00  0.000000000000000e+00  0.000000000000000e+00  0.000000000000000e+00  0.000000000000000e+00
25  0.000000000000000e+00  0.000000000000000e+00  0.000000000000000e+00  0.000000000000000e+00  0.000000000000000e+00  0.000000000000000e+00
26  0.000000000000000e+00  0.000000000000000e+00  0.000000000000000e+00  0.000000000000000e+00  0.000000000000000e+00  0.000000000000000e+00
27  0.000000000000000e+00  0.000000000000000e+00  0.000000000000000e+00  0.000000000000000e+00  0.000000000000000e+00  0.000000000000000e+00
28  0.000000000000000e+00  0.000000000000000e+00  0.000000000000000e+00  0.000000000000000e+00  0.000000000000000e+00  0.000000000000000e+00
29  0.000000000000000e+00  0.000000000000000e+00  0.000000000000000e+00  0.000000000000000e+00  0.000000000000000e+00  0.000000000000000e+00
30  0.000000000000000e+00  0.000000000000000e+00  0.000000000000000e+00  0.000000000000000e+00  0.000000000000000e+00  0.000000000000000e+00
31  0.000000000000000e+00  0.000000000000000e+00  0.000000000000000e+00  0.000000000000000e+00  0.000000000000000e+00  0.000000000000000e+00
32  0.000000000000000e+00  0.000000000000000e+00  0.000000000000000e+00  0.000000000000000e+00  0.000000000000000e+00  0.000000000000000e+00
33  0.000000000000000e+00  0.000000000000000e+00  0.000000000000000e+00  0.000000000000000e+00  0.000000000000000e+00  0.000000000000000e+00
34  0.000000000000000e+00  0.000000000000000e+00  0.000000000000000e+00  0.000000000000000e+00  0.000000000000000e+00  0.000000000000000e+00
35  0.000000000000000e+00  0.000000000000000e+00  0.000000000000000e+00  0.000000000000000e+00  0.000000000000000e+00  0.000000000000000e+00
36  0.000000000000000e+00  0.000000000000000e+00  0.000000000000000e+00  0.000000000000000e+00  0.000000000000000e+00  0.000000000000000e+00
37  0.000000000000000e+00  0.000000000000000e+00  0.000000000000000e+00  0.000000000000000e+00  0.000000000000000e+00  0.000000000000000e+00
38  0.000000000000000e+00  0.000000000000000e+00  0.000000000000000e+00  0.000000000000000e+00  0.000000000000000e+00  0.000000000000000e+00
39  0.000000000000000e+00  0.000000000000000e+00  0.000000000000000e+00  0.000000000000000e+00  0.000000000000000e+00  0.000000000000000e+00
40  0.000000000000000e+00  0.000000000000000e+00  0.000000000000000e+00  0.000000000000000e+00  0.000000000000000e+00  0.000000000000000e+00
41  0.000000000000000e+00  0.000000000000000e+00  0.000000000000000e+00  0.000000000000000e+00  0.000000000000000e+00  0.000000000000000e+00
42  0.000000000000000e+00  0.000000000000000e+00  0.000000000000000e+00  0.000000000000000e+00  0.000000000000000e+00  0.000000000000000e+00
43  0.000000000000000e+00  0.000000000000000e+00  0.000000000000000e+00  0.000000000000000e+00  0.000000000000000e+00  0.000000000000000e+00
44  0.000000000000000e+00  0.000000000000000e+00  0.000000000000000e+00  0.000000000000000e+00  0.000000000000000e+00  0.000000000000000e+00
45  0.000000000000000e+00  0.000000000000000e+00  0.000000000000000e+00  0.000000000000000e+00  0.000000000000000e+00  0.000000000000000e+00
46  0.000000000000000e+00  0.000000000000000e+00  0.000000000000000e+00  0.000000000000000e+00  0.000000000000000e+00  0.000000000000000e+00
47  0.000000000000000e+00  0.000000000000000e+00  0.000000000000000e+00  0.000000000000000e+00  0.000000000000000e+00  0.000000000000000e+00
48  0.000000000000000e+00  0.000000000000000e+00  0.000000000000000e+00  0.000000000000000e+00  0.000000000000000e+00  0.000000000000000e+00
49  0.000000000000000e+00  0.000000000000000e+00  0.000000000000000e+00  0.000000000000000e+00  0.000000000000000e+00  0.000000000000000e+00
50  0.000000000000000e+00  0.000000000000000e+00  0.000000000000000e+00  0.000000000000000e+00  0.000000000000000e+00  0.000000000000000e+00
51  0.000000000000000e+00  0.000000000000000e+00  0.000000000000000e+00  0.000000000000000e+00  0.000000000000000e+00  0.000000000000000e+00
52  0.000000000000000e+00  0.000000000000000e+00  0.000000000000000e+00  0.000000000000000e+00  0.000000000000000e+00  0.000000000000000e+00
53  0.000000000000000e+00  0.000000000000000e+00  0.000000000000000e+00  0.000000000000000e+00  0.000000000000000e+00  0.000000000000000e+00
54  0.000000000000000e+00  0.000000000000000e+00  0.000000000000000e+00  0.000000000000000e+00  0.000000000000000e+00  0.000000000000000e+00
55  0.000000000000000e+00  0.000000000000000e+00  0.000000000000000e+00  0.000000000000000e+00  0.000000000000000e+00  0.000000000000000e+00
56  0.000000000000000e+00  0.000000000000000e+00  0.000000000000000e+00  0.000000000000000e+00  0.000000000000000e+00  0.000000000000000e+00
57  0.000000000000000e+00  0.000000000000000e+00  0.000000000000000e+00  0.000000000000000e+00  0.000000000000000e+00  0.000000000000000e+00
58  0.000000000000000e+00  0.000000000000000e+00  0.000000000000000e+00  0.000000000000000e+00  0.000000000000000e+00  0.000000000000000e+00
59  0.000000000000000e+00  0.000000000000000e+00  0.000000000000000e+00  0.000000000000000e+00  0.000000000000000e+00  0.000000000000000e+00
60  0.000000000000000e+00  0.000000000000000e+00  0.000000000000000e+00  0.000000000000000e+00  0.000000000000000e+00  0.000000000000000e+00
61  0.000000000000000e+00  0.000000000000000e+00  0.000000000000000e+00  0.000000000000000e+00  0.000000000000000e+00  0.000000000000000e+00
62  0.000000000000000e+00  0.000000000000000e+00  0.000000000000000e+00  0.000000000000000e+00  0.000000000000000e+00  0.000000000000000e+00
63  0.000000000000000e+00  0.000000000000000e+00  0.000000000000000e+00  0.000000000000000e+00  0.000000000000000e+00  0.000000000000000e+00
64  0.000000000000000e+00  0.000000000000000e+00  0.000000000000000e+00  0.000000000000000e+00  0.000000000000000e+00  0.000000000000000e+00
65  0.000000000000000e+00  0.000000000000000e+00  0.000000000000000e+00  0.000000000000000e+00  0.000000000000000e+00  0.000000000000000e+00
66  0.000000000000000e+00  0.000000000000000e+00  0.000000000000000e+00  0.000000000000000e+00  0.000000000000000e+00  0.000000000000000e+00
67  0.000000000000000e+00  0.000000000000000e+00  0.000000000000000e+00  0.000000000000000e+00  0.000000000000000e+00  0.000000000000000e+00
68  0.000000000000000e+00  0.000000000000000e+00  0.000000000000000e+00  0.000000000000000e+00  0.000000000000000e+00  0.000000000000000e+00
69  0.000000000000000e+00  0.000000000000000e+00  0.000000000000000e+00  0.000000000000000e+00  0.000000000000000e+00  0.000000000000000e+00
70  0.000000000000000e+00  0.000000000000000e+00  0.000000000000000e+00  0.000000000000000e+00  0.000000000000000e+00  0.000000000000000e+00
71  0.000000000000000e+00  0.000000000000000e+00  0.000000000000000e+00  0.000000000000000e+00  0.000000000000000e+00  0.000000000000000e+00
72  0.000000000000000e+00  0.000000000000000e+00  0.000000000000000e+00  0.000000000000000e+00  0.000000000000000e+00  0.000000000000000e+00
73  0.000000000000000e+00  0.000000000000000e+00  0.000000000000000e+00  0.000000000000000e+00  0.000000000000000e+00  0.000000000000000e+00
74  0.000000000000000e+00  0.000000000000000e+00  0.000000000000000e+00  0.000000000000000e+00  0.000000000000000e+00  0.000000000000000e+00
75  0.000000000000000e+00  0.000000000000000e+00  0.000000000000000e+00  0.000000000000000e+00  0.000000000000000e+00  0.000000000000000e+00
76  0.000000000000000e+00  0.000000000000000e+00  0.000000000000000e+00  0.000000000000000e+00  0.000000000000000e+00  0.000000000000000e+00
77  0.000000000000000e+00  0.000000000000000e+00  0.000000000000000e+00  0.000000000000000e+00  0.000000000000000e+00  0.000000000000000e+00
78  0.000000000000000e+00  0.000000000000000e+00  0.000000000000000e+00  0.000000000000000e+00  0.000000000000000e+00  0.000000000000000e+00
79  0.000000000000000e+00  0.000000000000000e+00  0.000000000000000e+00  0.000000000000000e+00  0.000000000000000e+00  0.000000000000000e+00
80  0.000000000000000e+00  0.000000000000000e+00  0.000000000000000e+00  0.000000000000000e+00  0.000000000000000e+00  0.000000000000000e+00
81  0.000000000000000e+00  0.000000000000000e+00  0.000000000000000e+00  0.000000000000000e+00  0.000000000000000e+00  0.000000000000000e+00
82  0.000000000000000e+00  0.000000000000000e+00  0.000000000000000e+00  0.000000000000000e+00  0.000000000000000e+00  0.000000000000000e+00
83  0.000000000000000e+00  0.000000000000000e+00  0.000000000000000e+00  0.000000000000000e+00  0.000000000000000e+00  0.000000000000000e+00
84  0.000000000000000e+00  0.000000000000000e+00  0.000000000000000e+00  0.000000000000000e+00  0.000000000000000e+00  0.000000000000000e+00
85  0.000000000000000e+00  0.000000000000000e+00  0.000000000000000e+00  0.000000000000000e+00  0.000000000000000e+00  0.000000000000000e+00
86  0.000000000000000e+00  0.000000000000000e+00  0.000000000000000e+00  0.000000000000000e+00  0.000000000000000e+00  0.000000000000000e+00
87  0.000000000000000e+00  0.000000000000000e+00  0.000000000000000e+00  0.000000000000000e+00  0.000000000000000e+00  0.000000000000000e+00
88  0.000000000000000e+00  0.000000000000000e+00  0.000000000000000e+00  0.000000000000000e+00  0.000000000000000e+00  0.000000000000000e+00
89  0.000000000000000e+00  0.000000000000000e+00  0.000000000000000e+00  0.000000000000000e+00  0.000000000000000e+00  0.000000000000000e+00
90  0.000000000000000e+00  0.000000000000000e+00  0.000000000000000e+00  0.000000000000000e+00  0.000000000000000e+00  0.000000000000000e+00
91  0.000000000000000e+00  0.000000000000000e+00  0.000000000000000e+00  0.000000000000000e+00  0.000000000000000e+00  0.000000000000000e+00
92  0.000000000000000e+00  0.000000000000000e+00  0.000000000000000e+00  0.000000000000000e+00  0.000000000000000e+00  0.000000000000000e+00
93  0.000000000000000e+00  0.000000000000000e+00  0.000000000000000e+00  0.000000000000000e+00  0.000000000000000e+00  0.000000000000000e+00
94  0.000000000000000e+00  0.000000000000000e+00  0.000000000000000e+00  0.000000000000000e+00  0.000000000000000e+00  0.000000000000000e+00
95  0.000000000000000e+00  0.000000000000000e+00  0.000000000000000e+00  0.000000000000000e+00  0.000000000000000e+00  0.000000000000000e+00
96  0.000000000000000e+00  0.000000000000000e+00  0.000000000000000e+00  0.000000000000000e+00  0.000000000000000e+00  0.000000000000000e+00
97  0.000000000000000e+00  0.000000000000000e+00  0.000000000000000e+00  0.000000000000000e+00  0.000000000000000e+00  0.000000000000000e+00
98  0.000000000000000e+00  0.000000000000000e+00  0.000000000000000e+00  0.000000000000000e+00  0.000000000000000e+00  0.000000000000000e+00
99  0.000000000000000e+00  0.000000000000000e+00  0.000000000000000e+00  0.000000000000000e+00  0.000000000000000e+00  0.000000000000000e+00
100  0.000000000000000e+00  0.000000000000000e+00  0.000000000000000e+00  0.000000000000000e+00  0.000000000000000e+00  0.000000000000000e+00
101  0.000000000000000e+00  0.000000000000000e+00  0.000000000000000e+00  0.000000000000000e+00  0.000000000000000e+00  0.000000000000000e+00
102  0.000000000000000e+00  0.000000000000000e+00  0.000000000000000e+00  0.000000000000000e+00  0.000000000000000e+00  0.000000000000000e+00
103  0.000000000000000e+00  0.000000000000000e+00  0.000000000000000e+00  0.000000000000000e+00  0.000000000000000e+00  0.000000000000000e+00
104  0.000000000000000e+00  0.000000000000000e+00  0.000000000000000e+00  0.000000000000000e+00  0.000000000000000e+00  0.000000000000000e+00
105  0.000000000000000e+00  0.000000000000000e+00  0.000000000000000e+00  0.000000000000000e+00  0.000000000000000e+00  0.000000000000000e+00
106  0.000000000000000e+00  0.000000000000000e+00  0.000000000000000e+00  0.000000000000000e+00  0.000000000000000e+00  0.000000000000000e+00
107  0.000000000000000e+00  0.000000000000000e+00  0.000000000000000e+00  0.000000000000000e+00  0.000000000000000e+00  0.000000000000000e+00
108  0.000000000000000e+00  0.000000000000000e+00  0.000000000000000e+00  0.000000000000000e+00  0.000000000000000e+00  0.000000000000000e+00
109  0.000000000000000e+00  0.000000000000000e+00  0.000000000000000e+00  0.000000000000000e+00  0.000000000000000e+00  0.000000000000000e+00
110  0.000000000000000e+00  0.000000000000000e+00  0.000000000000000e+00  0.000000000000000e+00  0.000000000000000e+00  0.000000000000000e+00
111  0.000000000000000e+00  0.000000000000000e+00  0.000000000000000e+00  0.000000000000000e+00  0.000000000000000e+00  0.000000000000000e+00
112  0.000000000000000e+00  0.000000000000000e+00  0.000000000000000e+00  0.000000000000000e+00  0.000000000000000e+00  0.000000000000000e+00
113  0.000000000000000e+00  0.000000000000000e+00  0.000000000000000e+00  0.000000000000000e+00  0.000000000000000e+00  0.000000000000000e+00
114  0.000000000000000e+00  0.000000000000000e+00  0.000000000000000e+00  0.000000000000000e+00  0.000000000000000e+00  0.000000000000000e+00
115  0.000000000000000e+00  0.000000000000000e+00  0.000000000000000e+00  0.000000000000000e+00  0.000000000000000e+00  0.000000000000000e+00
116  0.000000000000000e+00  0.000000000000000e+00  0.000000000000000e+00  0.000000000000000e+00  0.000000000000000e+00  0.000000000000000e+00
117  0.000000000000000e+00  0.000000000000000e+00  0.000000000000000e+00  0.000000000000000e+00  0.000000000000000e+00  0.000000000000000e+00
118  0.000000000000000e+00  0.000000000000000e+00  0.000000000000000e+00  0.000000000000000e+00  0.000000000000000e+00  0.000000000000000e+00
119  0.000000000000000e+00  0.000000000000000e+00  0.000000000000000e+00  0.000000000000000e+00  0.000000000000000e+00  0.000000000000000e+00
120  0.000000000000000e+00  0.000000000000000e+00  0.000000000000000e+00  0.000000000000000e+00  0.000000000000000e+00  0.000000000000000e+00

# Atom-ID, shape, quaternion
Ellipsoids

1  1.173984503142341e+00  1.173984503142341e+00  1.173984503142341e+00  7.230207051208916e-01  1.618433596080490e-01  3.560533006509276e-01  5.694504666894644e-01
2  1.173984503142341e+00  1.173984503142341e+00  1.173984503142341e+00  5.123311177450742e-01  2.636898055087442e-01  2.888411106967596e-01  7.645621786567172e-01
3  1.173984503142341e+00  1.173984503142341e+00  1.173984503142341e+00  2.517678043053103e-01  3.398838163497819e-01  1.935180885558914e-01  8.852359648706467e-01
4  1.173984503142341e+00  1.173984503142341e+00  1.173984503142341e+00 -3.330615390720638e-02  3.829786072226795e-01  7.935352013130539e-02  9.197396943507750e-01
5  1.173984503142341e+00  1.173984503142341e+00  1.173984503142341e+00 -3.151320654995002e-01  3.887913745382951e-01 -4.254442531239901e-02  8.647097896135325e-01
6  1.173984503142341e+00  1.173984503142341e+00  1.173984503142341e+00  5.662847716056827e-01 -3.567626460376468e-01  1.602901340355830e-01 -7.254991693796564e-01
7  1.173984503142341e+00  1.173984503142341e+00  1.173984503142341e+00  7.623147180760123e-01 -2.899923556787732e-01  2.624363491309570e-01 -5.156625513912954e-01
8  1.173984503142341e+00  1.173984503142341e+00  1.173984503142341e+00  8.841309186716311e-01 -1.949956420696012e-01  3.390316481756453e-01 -2.556301229472519e-01
9  1.173984503142341e+00  1.173984503142341e+00  1.173984503142341e+00  9.198794548351595e-01 -8.101809561574139e-02  3.826225449819124e-01  2.928898814456791e-02
10  1.173984503142341e+00  1.173984503142341e+00  1.173984503142341e+00  8.660755820012733e-01  4.083238125301834e-02  3.889728409369066e-01  3.113614168708704e-01
11  1.173984503142341e+00  1.173984503142341e+00  1.173984503142341e+00  7.279625099171656e-01  1.587226857477620e-01  3.574519522129499e-01  5.631214745001906e-01
12  1.173984503142341e+00  1.173984503142341e+00  1.173984503142341e+00  5.189865836617431e-01  2.611678752098350e-01  2.911346453603539e-01  7.600558434801969e-01
13  1.173984503142341e+00  1.173984503142341e+00  1.173984503142341e+00  2.594806322709959e-01  3.381756606223115e-01  1.964756821036864e-01  8.830086808071589e-01
14  1.173984503142341e+00  1.173984503142341e+00  1.173984503142341e+00 -2.527330961763332e-02  3.822652558863629e-01  8.267717236764963e-02  9.199994669196253e-01
15  1.173984503142341e+00  1.173984503142341e+00  1.173984503142341e+00  6.554050146225925e-02  7.983035402925623e-01  8.268749098325719e-02  5.929407045053752e-01
16  1.173984503142341e+00  1.173984503142341e+00  1.173984503142341e+00 -1.203507605676874e-01  7.849312224176911e-01 -1.673880414184652e-01  5.842772578962309e-01
17  1.173984503142341e+00  1.173984503142341e+00  1.173984503142341e+00 -2.945925034902001e-01  6.951656458910787e-01 -4.011153744909304e-01  5.187161439623954e-01
18  1.173984503142341e+00  1.173984503142341e+00  1.173984503142341e+00 -4.401161466454023e-01  5.377162756525493e-01 -5.958369596428928e-01  4.026627644616125e-01